 # Fcc Cu oriented X=[11-2], Y=[111], Z=[-110].
 CRYSTAL
 PRIMVEC
     35.17467272        0.00000000        0.00000000
      0.00000000       31.09031200        0.00000000
      0.00000000        0.00000000       20.30810672
 CONVVEC
     35.17467272        0.00000000        0.00000000
      0.00000000       31.09031200        0.00000000
      0.00000000        0.00000000       20.30810672
 PRIMCOORD
     1920 1
29        0.00000000        0.00000000        0.00000000
29        2.93122273       26.94493707        0.00000000
29        1.46561136       29.01762453        0.00000000
29        2.19841704        0.00000000        1.26925667
29        3.66402841       29.01762453        1.26925667
29        0.73280568       26.94493707        1.26925667
29        4.39683409        0.00000000        0.00000000
29        7.32805682       26.94493707        0.00000000
29        5.86244545       29.01762453        0.00000000
29        6.59525113        0.00000000        1.26925667
29        8.06086250       29.01762453        1.26925667
29        5.12963977       26.94493707        1.26925667
29        8.79366818        0.00000000        0.00000000
29       11.72489091       26.94493707        0.00000000
29       10.25927954       29.01762453        0.00000000
29       10.99208522        0.00000000        1.26925667
29       12.45769659       29.01762453        1.26925667
29        9.52647386       26.94493707        1.26925667
29       13.19050227        0.00000000        0.00000000
29       16.12172500       26.94493707        0.00000000
29       14.65611363       29.01762453        0.00000000
29       15.38891931        0.00000000        1.26925667
29       16.85453068       29.01762453        1.26925667
29       13.92330795       26.94493707        1.26925667
29       17.58733636        0.00000000        0.00000000
29       20.51855909       26.94493707        0.00000000
29       19.05294772       29.01762453        0.00000000
29       19.78575340        0.00000000        1.26925667
29       21.25136477       29.01762453        1.26925667
29       18.32014204       26.94493707        1.26925667
29       21.98417045        0.00000000        0.00000000
29       24.91539318       26.94493707        0.00000000
29       23.44978181       29.01762453        0.00000000
29       24.18258749        0.00000000        1.26925667
29       25.64819886       29.01762453        1.26925667
29       22.71697613       26.94493707        1.26925667
29       26.38100454        0.00000000        0.00000000
29       29.31222727       26.94493707        0.00000000
29       27.84661590       29.01762453        0.00000000
29       28.57942158        0.00000000        1.26925667
29       30.04503295       29.01762453        1.26925667
29       27.11381022       26.94493707        1.26925667
29       30.77783863        0.00000000        0.00000000
29       33.70906136       26.94493707        0.00000000
29       32.24344999       29.01762453        0.00000000
29       32.97625567        0.00000000        1.26925667
29       34.44186704       29.01762453        1.26925667
29       31.51064431       26.94493707        1.26925667
29        0.00000000       24.87224960        0.00000000
29        2.93122273       20.72687467        0.00000000
29        1.46561136       22.79956213        0.00000000
29        2.19841704       24.87224960        1.26925667
29        3.66402841       22.79956213        1.26925667
29        0.73280568       20.72687467        1.26925667
29        4.39683409       24.87224960        0.00000000
29        7.32805682       20.72687467        0.00000000
29        5.86244545       22.79956213        0.00000000
29        6.59525113       24.87224960        1.26925667
29        8.06086250       22.79956213        1.26925667
29        5.12963977       20.72687467        1.26925667
29        8.79366818       24.87224960        0.00000000
29       11.72489091       20.72687467        0.00000000
29       10.25927954       22.79956213        0.00000000
29       10.99208522       24.87224960        1.26925667
29       12.45769659       22.79956213        1.26925667
29        9.52647386       20.72687467        1.26925667
29       13.19050227       24.87224960        0.00000000
29       16.12172500       20.72687467        0.00000000
29       14.65611363       22.79956213        0.00000000
29       15.38891931       24.87224960        1.26925667
29       16.85453068       22.79956213        1.26925667
29       13.92330795       20.72687467        1.26925667
29       17.58733636       24.87224960        0.00000000
29       20.51855909       20.72687467        0.00000000
29       19.05294772       22.79956213        0.00000000
29       19.78575340       24.87224960        1.26925667
29       21.25136477       22.79956213        1.26925667
29       18.32014204       20.72687467        1.26925667
29       21.98417045       24.87224960        0.00000000
29       24.91539318       20.72687467        0.00000000
29       23.44978181       22.79956213        0.00000000
29       24.18258749       24.87224960        1.26925667
29       25.64819886       22.79956213        1.26925667
29       22.71697613       20.72687467        1.26925667
29       26.38100454       24.87224960        0.00000000
29       29.31222727       20.72687467        0.00000000
29       27.84661590       22.79956213        0.00000000
29       28.57942158       24.87224960        1.26925667
29       30.04503295       22.79956213        1.26925667
29       27.11381022       20.72687467        1.26925667
29       30.77783863       24.87224960        0.00000000
29       33.70906136       20.72687467        0.00000000
29       32.24344999       22.79956213        0.00000000
29       32.97625567       24.87224960        1.26925667
29       34.44186704       22.79956213        1.26925667
29       31.51064431       20.72687467        1.26925667
29        0.00000000       18.65418720        0.00000000
29        2.93122273       14.50881227        0.00000000
29        1.46561136       16.58149973        0.00000000
29        2.19841704       18.65418720        1.26925667
29        3.66402841       16.58149973        1.26925667
29        0.73280568       14.50881227        1.26925667
29        4.39683409       18.65418720        0.00000000
29        7.32805682       14.50881227        0.00000000
29        5.86244545       16.58149973        0.00000000
29        6.59525113       18.65418720        1.26925667
29        8.06086250       16.58149973        1.26925667
29        5.12963977       14.50881227        1.26925667
29        8.79366818       18.65418720        0.00000000
29       11.72489091       14.50881227        0.00000000
29       10.25927954       16.58149973        0.00000000
29       10.99208522       18.65418720        1.26925667
29       12.45769659       16.58149973        1.26925667
29        9.52647386       14.50881227        1.26925667
29       13.19050227       18.65418720        0.00000000
29       16.12172500       14.50881227        0.00000000
29       14.65611363       16.58149973        0.00000000
29       15.38891931       18.65418720        1.26925667
29       16.85453068       16.58149973        1.26925667
29       13.92330795       14.50881227        1.26925667
29       17.58733636       18.65418720        0.00000000
29       20.51855909       14.50881227        0.00000000
29       19.05294772       16.58149973        0.00000000
29       19.78575340       18.65418720        1.26925667
29       21.25136477       16.58149973        1.26925667
29       18.32014204       14.50881227        1.26925667
29       21.98417045       18.65418720        0.00000000
29       24.91539318       14.50881227        0.00000000
29       23.44978181       16.58149973        0.00000000
29       24.18258749       18.65418720        1.26925667
29       25.64819886       16.58149973        1.26925667
29       22.71697613       14.50881227        1.26925667
29       26.38100454       18.65418720        0.00000000
29       29.31222727       14.50881227        0.00000000
29       27.84661590       16.58149973        0.00000000
29       28.57942158       18.65418720        1.26925667
29       30.04503295       16.58149973        1.26925667
29       27.11381022       14.50881227        1.26925667
29       30.77783863       18.65418720        0.00000000
29       33.70906136       14.50881227        0.00000000
29       32.24344999       16.58149973        0.00000000
29       32.97625567       18.65418720        1.26925667
29       34.44186704       16.58149973        1.26925667
29       31.51064431       14.50881227        1.26925667
29        0.00000000       12.43612480        0.00000000
29        2.93122273        8.29074987        0.00000000
29        1.46561136       10.36343733        0.00000000
29        2.19841704       12.43612480        1.26925667
29        3.66402841       10.36343733        1.26925667
29        0.73280568        8.29074987        1.26925667
29        4.39683409       12.43612480        0.00000000
29        7.32805682        8.29074987        0.00000000
29        5.86244545       10.36343733        0.00000000
29        6.59525113       12.43612480        1.26925667
29        8.06086250       10.36343733        1.26925667
29        5.12963977        8.29074987        1.26925667
29        8.79366818       12.43612480        0.00000000
29       11.72489091        8.29074987        0.00000000
29       10.25927954       10.36343733        0.00000000
29       10.99208522       12.43612480        1.26925667
29       12.45769659       10.36343733        1.26925667
29        9.52647386        8.29074987        1.26925667
29       13.19050227       12.43612480        0.00000000
29       16.12172500        8.29074987        0.00000000
29       14.65611363       10.36343733        0.00000000
29       15.38891931       12.43612480        1.26925667
29       16.85453068       10.36343733        1.26925667
29       13.92330795        8.29074987        1.26925667
29       17.58733636       12.43612480        0.00000000
29       20.51855909        8.29074987        0.00000000
29       19.05294772       10.36343733        0.00000000
29       19.78575340       12.43612480        1.26925667
29       21.25136477       10.36343733        1.26925667
29       18.32014204        8.29074987        1.26925667
29       21.98417045       12.43612480        0.00000000
29       24.91539318        8.29074987        0.00000000
29       23.44978181       10.36343733        0.00000000
29       24.18258749       12.43612480        1.26925667
29       25.64819886       10.36343733        1.26925667
29       22.71697613        8.29074987        1.26925667
29       26.38100454       12.43612480        0.00000000
29       29.31222727        8.29074987        0.00000000
29       27.84661590       10.36343733        0.00000000
29       28.57942158       12.43612480        1.26925667
29       30.04503295       10.36343733        1.26925667
29       27.11381022        8.29074987        1.26925667
29       30.77783863       12.43612480        0.00000000
29       33.70906136        8.29074987        0.00000000
29       32.24344999       10.36343733        0.00000000
29       32.97625567       12.43612480        1.26925667
29       34.44186704       10.36343733        1.26925667
29       31.51064431        8.29074987        1.26925667
29        0.00000000        6.21806240        0.00000000
29        2.93122273        2.07268747        0.00000000
29        1.46561136        4.14537493        0.00000000
29        2.19841704        6.21806240        1.26925667
29        3.66402841        4.14537493        1.26925667
29        0.73280568        2.07268747        1.26925667
29        4.39683409        6.21806240        0.00000000
29        7.32805682        2.07268747        0.00000000
29        5.86244545        4.14537493        0.00000000
29        6.59525113        6.21806240        1.26925667
29        8.06086250        4.14537493        1.26925667
29        5.12963977        2.07268747        1.26925667
29        8.79366818        6.21806240        0.00000000
29       11.72489091        2.07268747        0.00000000
29       10.25927954        4.14537493        0.00000000
29       10.99208522        6.21806240        1.26925667
29       12.45769659        4.14537493        1.26925667
29        9.52647386        2.07268747        1.26925667
29       13.19050227        6.21806240        0.00000000
29       16.12172500        2.07268747        0.00000000
29       14.65611363        4.14537493        0.00000000
29       15.38891931        6.21806240        1.26925667
29       16.85453068        4.14537493        1.26925667
29       13.92330795        2.07268747        1.26925667
29       17.58733636        6.21806240        0.00000000
29       20.51855909        2.07268747        0.00000000
29       19.05294772        4.14537493        0.00000000
29       19.78575340        6.21806240        1.26925667
29       21.25136477        4.14537493        1.26925667
29       18.32014204        2.07268747        1.26925667
29       21.98417045        6.21806240        0.00000000
29       24.91539318        2.07268747        0.00000000
29       23.44978181        4.14537493        0.00000000
29       24.18258749        6.21806240        1.26925667
29       25.64819886        4.14537493        1.26925667
29       22.71697613        2.07268747        1.26925667
29       26.38100454        6.21806240        0.00000000
29       29.31222727        2.07268747        0.00000000
29       27.84661590        4.14537493        0.00000000
29       28.57942158        6.21806240        1.26925667
29       30.04503295        4.14537493        1.26925667
29       27.11381022        2.07268747        1.26925667
29       30.77783863        6.21806240        0.00000000
29       33.70906136        2.07268747        0.00000000
29       32.24344999        4.14537493        0.00000000
29       32.97625567        6.21806240        1.26925667
29       34.44186704        4.14537493        1.26925667
29       31.51064431        2.07268747        1.26925667
29        0.00000000        0.00000000        2.53851334
29        2.93122273       26.94493707        2.53851334
29        1.46561136       29.01762453        2.53851334
29        2.19841704        0.00000000        3.80777001
29        3.66402841       29.01762453        3.80777001
29        0.73280568       26.94493707        3.80777001
29        4.39683409        0.00000000        2.53851334
29        7.32805682       26.94493707        2.53851334
29        5.86244545       29.01762453        2.53851334
29        6.59525113        0.00000000        3.80777001
29        8.06086250       29.01762453        3.80777001
29        5.12963977       26.94493707        3.80777001
29        8.79366818        0.00000000        2.53851334
29       11.72489091       26.94493707        2.53851334
29       10.25927954       29.01762453        2.53851334
29       10.99208522        0.00000000        3.80777001
29       12.45769659       29.01762453        3.80777001
29        9.52647386       26.94493707        3.80777001
29       13.19050227        0.00000000        2.53851334
29       16.12172500       26.94493707        2.53851334
29       14.65611363       29.01762453        2.53851334
29       15.38891931        0.00000000        3.80777001
29       16.85453068       29.01762453        3.80777001
29       13.92330795       26.94493707        3.80777001
29       17.58733636        0.00000000        2.53851334
29       20.51855909       26.94493707        2.53851334
29       19.05294772       29.01762453        2.53851334
29       19.78575340        0.00000000        3.80777001
29       21.25136477       29.01762453        3.80777001
29       18.32014204       26.94493707        3.80777001
29       21.98417045        0.00000000        2.53851334
29       24.91539318       26.94493707        2.53851334
29       23.44978181       29.01762453        2.53851334
29       24.18258749        0.00000000        3.80777001
29       25.64819886       29.01762453        3.80777001
29       22.71697613       26.94493707        3.80777001
29       26.38100454        0.00000000        2.53851334
29       29.31222727       26.94493707        2.53851334
29       27.84661590       29.01762453        2.53851334
29       28.57942158        0.00000000        3.80777001
29       30.04503295       29.01762453        3.80777001
29       27.11381022       26.94493707        3.80777001
29       30.77783863        0.00000000        2.53851334
29       33.70906136       26.94493707        2.53851334
29       32.24344999       29.01762453        2.53851334
29       32.97625567        0.00000000        3.80777001
29       34.44186704       29.01762453        3.80777001
29       31.51064431       26.94493707        3.80777001
29        0.00000000       24.87224960        2.53851334
29        2.93122273       20.72687467        2.53851334
29        1.46561136       22.79956213        2.53851334
29        2.19841704       24.87224960        3.80777001
29        3.66402841       22.79956213        3.80777001
29        0.73280568       20.72687467        3.80777001
29        4.39683409       24.87224960        2.53851334
29        7.32805682       20.72687467        2.53851334
29        5.86244545       22.79956213        2.53851334
29        6.59525113       24.87224960        3.80777001
29        8.06086250       22.79956213        3.80777001
29        5.12963977       20.72687467        3.80777001
29        8.79366818       24.87224960        2.53851334
29       11.72489091       20.72687467        2.53851334
29       10.25927954       22.79956213        2.53851334
29       10.99208522       24.87224960        3.80777001
29       12.45769659       22.79956213        3.80777001
29        9.52647386       20.72687467        3.80777001
29       13.19050227       24.87224960        2.53851334
29       16.12172500       20.72687467        2.53851334
29       14.65611363       22.79956213        2.53851334
29       15.38891931       24.87224960        3.80777001
29       16.85453068       22.79956213        3.80777001
29       13.92330795       20.72687467        3.80777001
29       17.58733636       24.87224960        2.53851334
29       20.51855909       20.72687467        2.53851334
29       19.05294772       22.79956213        2.53851334
29       19.78575340       24.87224960        3.80777001
29       21.25136477       22.79956213        3.80777001
29       18.32014204       20.72687467        3.80777001
29       21.98417045       24.87224960        2.53851334
29       24.91539318       20.72687467        2.53851334
29       23.44978181       22.79956213        2.53851334
29       24.18258749       24.87224960        3.80777001
29       25.64819886       22.79956213        3.80777001
29       22.71697613       20.72687467        3.80777001
29       26.38100454       24.87224960        2.53851334
29       29.31222727       20.72687467        2.53851334
29       27.84661590       22.79956213        2.53851334
29       28.57942158       24.87224960        3.80777001
29       30.04503295       22.79956213        3.80777001
29       27.11381022       20.72687467        3.80777001
29       30.77783863       24.87224960        2.53851334
29       33.70906136       20.72687467        2.53851334
29       32.24344999       22.79956213        2.53851334
29       32.97625567       24.87224960        3.80777001
29       34.44186704       22.79956213        3.80777001
29       31.51064431       20.72687467        3.80777001
29        0.00000000       18.65418720        2.53851334
29        2.93122273       14.50881227        2.53851334
29        1.46561136       16.58149973        2.53851334
29        2.19841704       18.65418720        3.80777001
29        3.66402841       16.58149973        3.80777001
29        0.73280568       14.50881227        3.80777001
29        4.39683409       18.65418720        2.53851334
29        7.32805682       14.50881227        2.53851334
29        5.86244545       16.58149973        2.53851334
29        6.59525113       18.65418720        3.80777001
29        8.06086250       16.58149973        3.80777001
29        5.12963977       14.50881227        3.80777001
29        8.79366818       18.65418720        2.53851334
29       11.72489091       14.50881227        2.53851334
29       10.25927954       16.58149973        2.53851334
29       10.99208522       18.65418720        3.80777001
29       12.45769659       16.58149973        3.80777001
29        9.52647386       14.50881227        3.80777001
29       13.19050227       18.65418720        2.53851334
29       16.12172500       14.50881227        2.53851334
29       14.65611363       16.58149973        2.53851334
29       15.38891931       18.65418720        3.80777001
29       16.85453068       16.58149973        3.80777001
29       13.92330795       14.50881227        3.80777001
29       17.58733636       18.65418720        2.53851334
29       20.51855909       14.50881227        2.53851334
29       19.05294772       16.58149973        2.53851334
29       19.78575340       18.65418720        3.80777001
29       21.25136477       16.58149973        3.80777001
29       18.32014204       14.50881227        3.80777001
29       21.98417045       18.65418720        2.53851334
29       24.91539318       14.50881227        2.53851334
29       23.44978181       16.58149973        2.53851334
29       24.18258749       18.65418720        3.80777001
29       25.64819886       16.58149973        3.80777001
29       22.71697613       14.50881227        3.80777001
29       26.38100454       18.65418720        2.53851334
29       29.31222727       14.50881227        2.53851334
29       27.84661590       16.58149973        2.53851334
29       28.57942158       18.65418720        3.80777001
29       30.04503295       16.58149973        3.80777001
29       27.11381022       14.50881227        3.80777001
29       30.77783863       18.65418720        2.53851334
29       33.70906136       14.50881227        2.53851334
29       32.24344999       16.58149973        2.53851334
29       32.97625567       18.65418720        3.80777001
29       34.44186704       16.58149973        3.80777001
29       31.51064431       14.50881227        3.80777001
29        0.00000000       12.43612480        2.53851334
29        2.93122273        8.29074987        2.53851334
29        1.46561136       10.36343733        2.53851334
29        2.19841704       12.43612480        3.80777001
29        3.66402841       10.36343733        3.80777001
29        0.73280568        8.29074987        3.80777001
29        4.39683409       12.43612480        2.53851334
29        7.32805682        8.29074987        2.53851334
29        5.86244545       10.36343733        2.53851334
29        6.59525113       12.43612480        3.80777001
29        8.06086250       10.36343733        3.80777001
29        5.12963977        8.29074987        3.80777001
29        8.79366818       12.43612480        2.53851334
29       11.72489091        8.29074987        2.53851334
29       10.25927954       10.36343733        2.53851334
29       10.99208522       12.43612480        3.80777001
29       12.45769659       10.36343733        3.80777001
29        9.52647386        8.29074987        3.80777001
29       13.19050227       12.43612480        2.53851334
29       16.12172500        8.29074987        2.53851334
29       14.65611363       10.36343733        2.53851334
29       15.38891931       12.43612480        3.80777001
29       16.85453068       10.36343733        3.80777001
29       13.92330795        8.29074987        3.80777001
29       17.58733636       12.43612480        2.53851334
29       20.51855909        8.29074987        2.53851334
29       19.05294772       10.36343733        2.53851334
29       19.78575340       12.43612480        3.80777001
29       21.25136477       10.36343733        3.80777001
29       18.32014204        8.29074987        3.80777001
29       21.98417045       12.43612480        2.53851334
29       24.91539318        8.29074987        2.53851334
29       23.44978181       10.36343733        2.53851334
29       24.18258749       12.43612480        3.80777001
29       25.64819886       10.36343733        3.80777001
29       22.71697613        8.29074987        3.80777001
29       26.38100454       12.43612480        2.53851334
29       29.31222727        8.29074987        2.53851334
29       27.84661590       10.36343733        2.53851334
29       28.57942158       12.43612480        3.80777001
29       30.04503295       10.36343733        3.80777001
29       27.11381022        8.29074987        3.80777001
29       30.77783863       12.43612480        2.53851334
29       33.70906136        8.29074987        2.53851334
29       32.24344999       10.36343733        2.53851334
29       32.97625567       12.43612480        3.80777001
29       34.44186704       10.36343733        3.80777001
29       31.51064431        8.29074987        3.80777001
29        0.00000000        6.21806240        2.53851334
29        2.93122273        2.07268747        2.53851334
29        1.46561136        4.14537493        2.53851334
29        2.19841704        6.21806240        3.80777001
29        3.66402841        4.14537493        3.80777001
29        0.73280568        2.07268747        3.80777001
29        4.39683409        6.21806240        2.53851334
29        7.32805682        2.07268747        2.53851334
29        5.86244545        4.14537493        2.53851334
29        6.59525113        6.21806240        3.80777001
29        8.06086250        4.14537493        3.80777001
29        5.12963977        2.07268747        3.80777001
29        8.79366818        6.21806240        2.53851334
29       11.72489091        2.07268747        2.53851334
29       10.25927954        4.14537493        2.53851334
29       10.99208522        6.21806240        3.80777001
29       12.45769659        4.14537493        3.80777001
29        9.52647386        2.07268747        3.80777001
29       13.19050227        6.21806240        2.53851334
29       16.12172500        2.07268747        2.53851334
29       14.65611363        4.14537493        2.53851334
29       15.38891931        6.21806240        3.80777001
29       16.85453068        4.14537493        3.80777001
29       13.92330795        2.07268747        3.80777001
29       17.58733636        6.21806240        2.53851334
29       20.51855909        2.07268747        2.53851334
29       19.05294772        4.14537493        2.53851334
29       19.78575340        6.21806240        3.80777001
29       21.25136477        4.14537493        3.80777001
29       18.32014204        2.07268747        3.80777001
29       21.98417045        6.21806240        2.53851334
29       24.91539318        2.07268747        2.53851334
29       23.44978181        4.14537493        2.53851334
29       24.18258749        6.21806240        3.80777001
29       25.64819886        4.14537493        3.80777001
29       22.71697613        2.07268747        3.80777001
29       26.38100454        6.21806240        2.53851334
29       29.31222727        2.07268747        2.53851334
29       27.84661590        4.14537493        2.53851334
29       28.57942158        6.21806240        3.80777001
29       30.04503295        4.14537493        3.80777001
29       27.11381022        2.07268747        3.80777001
29       30.77783863        6.21806240        2.53851334
29       33.70906136        2.07268747        2.53851334
29       32.24344999        4.14537493        2.53851334
29       32.97625567        6.21806240        3.80777001
29       34.44186704        4.14537493        3.80777001
29       31.51064431        2.07268747        3.80777001
29        0.00000000        0.00000000        5.07702668
29        2.93122273       26.94493707        5.07702668
29        1.46561136       29.01762453        5.07702668
29        2.19841704        0.00000000        6.34628335
29        3.66402841       29.01762453        6.34628335
29        0.73280568       26.94493707        6.34628335
29        4.39683409        0.00000000        5.07702668
29        7.32805682       26.94493707        5.07702668
29        5.86244545       29.01762453        5.07702668
29        6.59525113        0.00000000        6.34628335
29        8.06086250       29.01762453        6.34628335
29        5.12963977       26.94493707        6.34628335
29        8.79366818        0.00000000        5.07702668
29       11.72489091       26.94493707        5.07702668
29       10.25927954       29.01762453        5.07702668
29       10.99208522        0.00000000        6.34628335
29       12.45769659       29.01762453        6.34628335
29        9.52647386       26.94493707        6.34628335
29       13.19050227        0.00000000        5.07702668
29       16.12172500       26.94493707        5.07702668
29       14.65611363       29.01762453        5.07702668
29       15.38891931        0.00000000        6.34628335
29       16.85453068       29.01762453        6.34628335
29       13.92330795       26.94493707        6.34628335
29       17.58733636        0.00000000        5.07702668
29       20.51855909       26.94493707        5.07702668
29       19.05294772       29.01762453        5.07702668
29       19.78575340        0.00000000        6.34628335
29       21.25136477       29.01762453        6.34628335
29       18.32014204       26.94493707        6.34628335
29       21.98417045        0.00000000        5.07702668
29       24.91539318       26.94493707        5.07702668
29       23.44978181       29.01762453        5.07702668
29       24.18258749        0.00000000        6.34628335
29       25.64819886       29.01762453        6.34628335
29       22.71697613       26.94493707        6.34628335
29       26.38100454        0.00000000        5.07702668
29       29.31222727       26.94493707        5.07702668
29       27.84661590       29.01762453        5.07702668