 # Fcc Cu oriented X=[11-2], Y=[111], Z=[-110].
 CRYSTAL
 PRIMVEC
      4.39683409        0.00000000        0.00000000
      0.00000000        6.21806240        0.00000000
      0.00000000        0.00000000        2.53851334
 CONVVEC
      4.39683409        0.00000000        0.00000000
      0.00000000        6.21806240        0.00000000
      0.00000000        0.00000000        2.53851334
 PRIMCOORD
        6 1
29        0.00000000        0.00000000        0.00000000
29        2.93122273        4.14537493        0.00000000
29        1.46561136        2.07268747        0.00000000
29        2.19841704        0.00000000        1.26925667
29        3.66402841        2.07268747        1.26925667
29        0.73280568        4.14537493        1.26925667
