 # Fcc Cu oriented X=[11-2], Y=[111], Z=[-110].
 CRYSTAL
 PRIMVEC
     35.17467272        0.00000000        0.00000000
      0.00000000       62.18062400        0.00000000
      0.00000000        0.00000000       20.30810672
 CONVVEC
     35.17467272        0.00000000        0.00000000
      0.00000000       62.18062400        0.00000000
      0.00000000        0.00000000       20.30810672
 PRIMCOORD
     3840 1
29        0.00000000        0.00000000        0.00000000
29        2.93122273        4.14537493        0.00000000
29        1.46561136        2.07268747        0.00000000
29        2.19841704        0.00000000        1.26925667
29        3.66402841        2.07268747        1.26925667
29        0.73280568        4.14537493        1.26925667
29        4.39683409        0.00000000        0.00000000
29        7.32805682        4.14537493        0.00000000
29        5.86244545        2.07268747        0.00000000
29        6.59525113        0.00000000        1.26925667
29        8.06086250        2.07268747        1.26925667
29        5.12963977        4.14537493        1.26925667
29        8.79366818        0.00000000        0.00000000
29       11.72489091        4.14537493        0.00000000
29       10.25927954        2.07268747        0.00000000
29       10.99208522        0.00000000        1.26925667
29       12.45769659        2.07268747        1.26925667
29        9.52647386        4.14537493        1.26925667
29       13.19050227        0.00000000        0.00000000
29       16.12172500        4.14537493        0.00000000
29       14.65611363        2.07268747        0.00000000
29       15.38891931        0.00000000        1.26925667
29       16.85453068        2.07268747        1.26925667
29       13.92330795        4.14537493        1.26925667
29       17.58733636        0.00000000        0.00000000
29       20.51855909        4.14537493        0.00000000
29       19.05294772        2.07268747        0.00000000
29       19.78575340        0.00000000        1.26925667
29       21.25136477        2.07268747        1.26925667
29       18.32014204        4.14537493        1.26925667
29       21.98417045        0.00000000        0.00000000
29       24.91539318        4.14537493        0.00000000
29       23.44978181        2.07268747        0.00000000
29       24.18258749        0.00000000        1.26925667
29       25.64819886        2.07268747        1.26925667
29       22.71697613        4.14537493        1.26925667
29       26.38100454        0.00000000        0.00000000
29       29.31222727        4.14537493        0.00000000
29       27.84661590        2.07268747        0.00000000
29       28.57942158        0.00000000        1.26925667
29       30.04503295        2.07268747        1.26925667
29       27.11381022        4.14537493        1.26925667
29       30.77783863        0.00000000        0.00000000
29       33.70906136        4.14537493        0.00000000
29       32.24344999        2.07268747        0.00000000
29       32.97625567        0.00000000        1.26925667
29       34.44186704        2.07268747        1.26925667
29       31.51064431        4.14537493        1.26925667
29        0.00000000        6.21806240        0.00000000
29        2.93122273       10.36343733        0.00000000
29        1.46561136        8.29074987        0.00000000
29        2.19841704        6.21806240        1.26925667
29        3.66402841        8.29074987        1.26925667
29        0.73280568       10.36343733        1.26925667
29        4.39683409        6.21806240        0.00000000
29        7.32805682       10.36343733        0.00000000
29        5.86244545        8.29074987        0.00000000
29        6.59525113        6.21806240        1.26925667
29        8.06086250        8.29074987        1.26925667
29        5.12963977       10.36343733        1.26925667
29        8.79366818        6.21806240        0.00000000
29       11.72489091       10.36343733        0.00000000
29       10.25927954        8.29074987        0.00000000
29       10.99208522        6.21806240        1.26925667
29       12.45769659        8.29074987        1.26925667
29        9.52647386       10.36343733        1.26925667
29       13.19050227        6.21806240        0.00000000
29       16.12172500       10.36343733        0.00000000
29       14.65611363        8.29074987        0.00000000
29       15.38891931        6.21806240        1.26925667
29       16.85453068        8.29074987        1.26925667
29       13.92330795       10.36343733        1.26925667
29       17.58733636        6.21806240        0.00000000
29       20.51855909       10.36343733        0.00000000
29       19.05294772        8.29074987        0.00000000
29       19.78575340        6.21806240        1.26925667
29       21.25136477        8.29074987        1.26925667
29       18.32014204       10.36343733        1.26925667
29       21.98417045        6.21806240        0.00000000
29       24.91539318       10.36343733        0.00000000
29       23.44978181        8.29074987        0.00000000
29       24.18258749        6.21806240        1.26925667
29       25.64819886        8.29074987        1.26925667
29       22.71697613       10.36343733        1.26925667
29       26.38100454        6.21806240        0.00000000
29       29.31222727       10.36343733        0.00000000
29       27.84661590        8.29074987        0.00000000
29       28.57942158        6.21806240        1.26925667
29       30.04503295        8.29074987        1.26925667
29       27.11381022       10.36343733        1.26925667
29       30.77783863        6.21806240        0.00000000
29       33.70906136       10.36343733        0.00000000
29       32.24344999        8.29074987        0.00000000
29       32.97625567        6.21806240        1.26925667
29       34.44186704        8.29074987        1.26925667
29       31.51064431       10.36343733        1.26925667
29        0.00000000       12.43612480        0.00000000
29        2.93122273       16.58149973        0.00000000
29        1.46561136       14.50881227        0.00000000
29        2.19841704       12.43612480        1.26925667
29        3.66402841       14.50881227        1.26925667
29        0.73280568       16.58149973        1.26925667
29        4.39683409       12.43612480        0.00000000
29        7.32805682       16.58149973        0.00000000
29        5.86244545       14.50881227        0.00000000
29        6.59525113       12.43612480        1.26925667
29        8.06086250       14.50881227        1.26925667
29        5.12963977       16.58149973        1.26925667
29        8.79366818       12.43612480        0.00000000
29       11.72489091       16.58149973        0.00000000
29       10.25927954       14.50881227        0.00000000
29       10.99208522       12.43612480        1.26925667
29       12.45769659       14.50881227        1.26925667
29        9.52647386       16.58149973        1.26925667
29       13.19050227       12.43612480        0.00000000
29       16.12172500       16.58149973        0.00000000
29       14.65611363       14.50881227        0.00000000
29       15.38891931       12.43612480        1.26925667
29       16.85453068       14.50881227        1.26925667
29       13.92330795       16.58149973        1.26925667
29       17.58733636       12.43612480        0.00000000
29       20.51855909       16.58149973        0.00000000
29       19.05294772       14.50881227        0.00000000
29       19.78575340       12.43612480        1.26925667
29       21.25136477       14.50881227        1.26925667
29       18.32014204       16.58149973        1.26925667
29       21.98417045       12.43612480        0.00000000
29       24.91539318       16.58149973        0.00000000
29       23.44978181       14.50881227        0.00000000
29       24.18258749       12.43612480        1.26925667
29       25.64819886       14.50881227        1.26925667
29       22.71697613       16.58149973        1.26925667
29       26.38100454       12.43612480        0.00000000
29       29.31222727       16.58149973        0.00000000
29       27.84661590       14.50881227        0.00000000
29       28.57942158       12.43612480        1.26925667
29       30.04503295       14.50881227        1.26925667
29       27.11381022       16.58149973        1.26925667
29       30.77783863       12.43612480        0.00000000
29       33.70906136       16.58149973        0.00000000
29       32.24344999       14.50881227        0.00000000
29       32.97625567       12.43612480        1.26925667
29       34.44186704       14.50881227        1.26925667
29       31.51064431       16.58149973        1.26925667
29        0.00000000       18.65418720        0.00000000
29        2.93122273       22.79956213        0.00000000
29        1.46561136       20.72687467        0.00000000
29        2.19841704       18.65418720        1.26925667
29        3.66402841       20.72687467        1.26925667
29        0.73280568       22.79956213        1.26925667
29        4.39683409       18.65418720        0.00000000
29        7.32805682       22.79956213        0.00000000
29        5.86244545       20.72687467        0.00000000
29        6.59525113       18.65418720        1.26925667
29        8.06086250       20.72687467        1.26925667
29        5.12963977       22.79956213        1.26925667
29        8.79366818       18.65418720        0.00000000
29       11.72489091       22.79956213        0.00000000
29       10.25927954       20.72687467        0.00000000
29       10.99208522       18.65418720        1.26925667
29       12.45769659       20.72687467        1.26925667
29        9.52647386       22.79956213        1.26925667
29       13.19050227       18.65418720        0.00000000
29       16.12172500       22.79956213        0.00000000
29       14.65611363       20.72687467        0.00000000
29       15.38891931       18.65418720        1.26925667
29       16.85453068       20.72687467        1.26925667
29       13.92330795       22.79956213        1.26925667
29       17.58733636       18.65418720        0.00000000
29       20.51855909       22.79956213        0.00000000
29       19.05294772       20.72687467        0.00000000
29       19.78575340       18.65418720        1.26925667
29       21.25136477       20.72687467        1.26925667
29       18.32014204       22.79956213        1.26925667
29       21.98417045       18.65418720        0.00000000
29       24.91539318       22.79956213        0.00000000
29       23.44978181       20.72687467        0.00000000
29       24.18258749       18.65418720        1.26925667
29       25.64819886       20.72687467        1.26925667
29       22.71697613       22.79956213        1.26925667
29       26.38100454       18.65418720        0.00000000
29       29.31222727       22.79956213        0.00000000
29       27.84661590       20.72687467        0.00000000
29       28.57942158       18.65418720        1.26925667
29       30.04503295       20.72687467        1.26925667
29       27.11381022       22.79956213        1.26925667
29       30.77783863       18.65418720        0.00000000
29       33.70906136       22.79956213        0.00000000
29       32.24344999       20.72687467        0.00000000
29       32.97625567       18.65418720        1.26925667
29       34.44186704       20.72687467        1.26925667
29       31.51064431       22.79956213        1.26925667
29        0.00000000       24.87224960        0.00000000
29        2.93122273       29.01762453        0.00000000
29        1.46561136       26.94493707        0.00000000
29        2.19841704       24.87224960        1.26925667
29        3.66402841       26.94493707        1.26925667
29        0.73280568       29.01762453        1.26925667
29        4.39683409       24.87224960        0.00000000
29        7.32805682       29.01762453        0.00000000
29        5.86244545       26.94493707        0.00000000
29        6.59525113       24.87224960        1.26925667
29        8.06086250       26.94493707        1.26925667
29        5.12963977       29.01762453        1.26925667
29        8.79366818       24.87224960        0.00000000
29       11.72489091       29.01762453        0.00000000
29       10.25927954       26.94493707        0.00000000
29       10.99208522       24.87224960        1.26925667
29       12.45769659       26.94493707        1.26925667
29        9.52647386       29.01762453        1.26925667
29       13.19050227       24.87224960        0.00000000
29       16.12172500       29.01762453        0.00000000
29       14.65611363       26.94493707        0.00000000
29       15.38891931       24.87224960        1.26925667
29       16.85453068       26.94493707        1.26925667
29       13.92330795       29.01762453        1.26925667
29       17.58733636       24.87224960        0.00000000
29       20.51855909       29.01762453        0.00000000
29       19.05294772       26.94493707        0.00000000
29       19.78575340       24.87224960        1.26925667
29       21.25136477       26.94493707        1.26925667
29       18.32014204       29.01762453        1.26925667
29       21.98417045       24.87224960        0.00000000
29       24.91539318       29.01762453        0.00000000
29       23.44978181       26.94493707        0.00000000
29       24.18258749       24.87224960        1.26925667
29       25.64819886       26.94493707        1.26925667
29       22.71697613       29.01762453        1.26925667
29       26.38100454       24.87224960        0.00000000
29       29.31222727       29.01762453        0.00000000
29       27.84661590       26.94493707        0.00000000
29       28.57942158       24.87224960        1.26925667
29       30.04503295       26.94493707        1.26925667
29       27.11381022       29.01762453        1.26925667
29       30.77783863       24.87224960        0.00000000
29       33.70906136       29.01762453        0.00000000
29       32.24344999       26.94493707        0.00000000
29       32.97625567       24.87224960        1.26925667
29       34.44186704       26.94493707        1.26925667
29       31.51064431       29.01762453        1.26925667
29        0.00000000        0.00000000        2.53851334
29        2.93122273        4.14537493        2.53851334
29        1.46561136        2.07268747        2.53851334
29        2.19841704        0.00000000        3.80777001
29        3.66402841        2.07268747        3.80777001
29        0.73280568        4.14537493        3.80777001
29        4.39683409        0.00000000        2.53851334
29        7.32805682        4.14537493        2.53851334
29        5.86244545        2.07268747        2.53851334
29        6.59525113        0.00000000        3.80777001
29        8.06086250        2.07268747        3.80777001
29        5.12963977        4.14537493        3.80777001
29        8.79366818        0.00000000        2.53851334
29       11.72489091        4.14537493        2.53851334
29       10.25927954        2.07268747        2.53851334
29       10.99208522        0.00000000        3.80777001
29       12.45769659        2.07268747        3.80777001
29        9.52647386        4.14537493        3.80777001
29       13.19050227        0.00000000        2.53851334
29       16.12172500        4.14537493        2.53851334
29       14.65611363        2.07268747        2.53851334
29       15.38891931        0.00000000        3.80777001
29       16.85453068        2.07268747        3.80777001
29       13.92330795        4.14537493        3.80777001
29       17.58733636        0.00000000        2.53851334
29       20.51855909        4.14537493        2.53851334
29       19.05294772        2.07268747        2.53851334
29       19.78575340        0.00000000        3.80777001
29       21.25136477        2.07268747        3.80777001
29       18.32014204        4.14537493        3.80777001
29       21.98417045        0.00000000        2.53851334
29       24.91539318        4.14537493        2.53851334
29       23.44978181        2.07268747        2.53851334
29       24.18258749        0.00000000        3.80777001
29       25.64819886        2.07268747        3.80777001
29       22.71697613        4.14537493        3.80777001
29       26.38100454        0.00000000        2.53851334
29       29.31222727        4.14537493        2.53851334
29       27.84661590        2.07268747        2.53851334
29       28.57942158        0.00000000        3.80777001
29       30.04503295        2.07268747        3.80777001
29       27.11381022        4.14537493        3.80777001
29       30.77783863        0.00000000        2.53851334
29       33.70906136        4.14537493        2.53851334
29       32.24344999        2.07268747        2.53851334
29       32.97625567        0.00000000        3.80777001
29       34.44186704        2.07268747        3.80777001
29       31.51064431        4.14537493        3.80777001
29        0.00000000        6.21806240        2.53851334
29        2.93122273       10.36343733        2.53851334
29        1.46561136        8.29074987        2.53851334
29        2.19841704        6.21806240        3.80777001
29        3.66402841        8.29074987        3.80777001
29        0.73280568       10.36343733        3.80777001
29        4.39683409        6.21806240        2.53851334
29        7.32805682       10.36343733        2.53851334
29        5.86244545        8.29074987        2.53851334
29        6.59525113        6.21806240        3.80777001
29        8.06086250        8.29074987        3.80777001
29        5.12963977       10.36343733        3.80777001
29        8.79366818        6.21806240        2.53851334
29       11.72489091       10.36343733        2.53851334
29       10.25927954        8.29074987        2.53851334
29       10.99208522        6.21806240        3.80777001
29       12.45769659        8.29074987        3.80777001
29        9.52647386       10.36343733        3.80777001
29       13.19050227        6.21806240        2.53851334
29       16.12172500       10.36343733        2.53851334
29       14.65611363        8.29074987        2.53851334
29       15.38891931        6.21806240        3.80777001
29       16.85453068        8.29074987        3.80777001
29       13.92330795       10.36343733        3.80777001
29       17.58733636        6.21806240        2.53851334
29       20.51855909       10.36343733        2.53851334
29       19.05294772        8.29074987        2.53851334
29       19.78575340        6.21806240        3.80777001
29       21.25136477        8.29074987        3.80777001
29       18.32014204       10.36343733        3.80777001
29       21.98417045        6.21806240        2.53851334
29       24.91539318       10.36343733        2.53851334
29       23.44978181        8.29074987        2.53851334
29       24.18258749        6.21806240        3.80777001
29       25.64819886        8.29074987        3.80777001
29       22.71697613       10.36343733        3.80777001
29       26.38100454        6.21806240        2.53851334
29       29.31222727       10.36343733        2.53851334
29       27.84661590        8.29074987        2.53851334
29       28.57942158        6.21806240        3.80777001
29       30.04503295        8.29074987        3.80777001
29       27.11381022       10.36343733        3.80777001
29       30.77783863        6.21806240        2.53851334
29       33.70906136       10.36343733        2.53851334
29       32.24344999        8.29074987        2.53851334
29       32.97625567        6.21806240        3.80777001
29       34.44186704        8.29074987        3.80777001
29       31.51064431       10.36343733        3.80777001
29        0.00000000       12.43612480        2.53851334
29        2.93122273       16.58149973        2.53851334
29        1.46561136       14.50881227        2.53851334
29        2.19841704       12.43612480        3.80777001
29        3.66402841       14.50881227        3.80777001
29        0.73280568       16.58149973        3.80777001
29        4.39683409       12.43612480        2.53851334
29        7.32805682       16.58149973        2.53851334
29        5.86244545       14.50881227        2.53851334
29        6.59525113       12.43612480        3.80777001
29        8.06086250       14.50881227        3.80777001
29        5.12963977       16.58149973        3.80777001
29        8.79366818       12.43612480        2.53851334
29       11.72489091       16.58149973        2.53851334
29       10.25927954       14.50881227        2.53851334
29       10.99208522       12.43612480        3.80777001
29       12.45769659       14.50881227        3.80777001
29        9.52647386       16.58149973        3.80777001
29       13.19050227       12.43612480        2.53851334
29       16.12172500       16.58149973        2.53851334
29       14.65611363       14.50881227        2.53851334
29       15.38891931       12.43612480        3.80777001
29       16.85453068       14.50881227        3.80777001
29       13.92330795       16.58149973        3.80777001
29       17.58733636       12.43612480        2.53851334
29       20.51855909       16.58149973        2.53851334
29       19.05294772       14.50881227        2.53851334
29       19.78575340       12.43612480        3.80777001
29       21.25136477       14.50881227        3.80777001
29       18.32014204       16.58149973        3.80777001
29       21.98417045       12.43612480        2.53851334
29       24.91539318       16.58149973        2.53851334
29       23.44978181       14.50881227        2.53851334
29       24.18258749       12.43612480        3.80777001
29       25.64819886       14.50881227        3.80777001
29       22.71697613       16.58149973        3.80777001
29       26.38100454       12.43612480        2.53851334
29       29.31222727       16.58149973        2.53851334
29       27.84661590       14.50881227        2.53851334
29       28.57942158       12.43612480        3.80777001
29       30.04503295       14.50881227        3.80777001
29       27.11381022       16.58149973        3.80777001
29       30.77783863       12.43612480        2.53851334
29       33.70906136       16.58149973        2.53851334
29       32.24344999       14.50881227        2.53851334
29       32.97625567       12.43612480        3.80777001
29       34.44186704       14.50881227        3.80777001
29       31.51064431       16.58149973        3.80777001
29        0.00000000       18.65418720        2.53851334
29        2.93122273       22.79956213        2.53851334
29        1.46561136       20.72687467        2.53851334
29        2.19841704       18.65418720        3.80777001
29        3.66402841       20.72687467        3.80777001
29        0.73280568       22.79956213        3.80777001
29        4.39683409       18.65418720        2.53851334
29        7.32805682       22.79956213        2.53851334
29        5.86244545       20.72687467        2.53851334
29        6.59525113       18.65418720        3.80777001
29        8.06086250       20.72687467        3.80777001
29        5.12963977       22.79956213        3.80777001
29        8.79366818       18.65418720        2.53851334
29       11.72489091       22.79956213        2.53851334
29       10.25927954       20.72687467        2.53851334
29       10.99208522       18.65418720        3.80777001
29       12.45769659       20.72687467        3.80777001
29        9.52647386       22.79956213        3.80777001
29       13.19050227       18.65418720        2.53851334
29       16.12172500       22.79956213        2.53851334
29       14.65611363       20.72687467        2.53851334
29       15.38891931       18.65418720        3.80777001
29       16.85453068       20.72687467        3.80777001
29       13.92330795       22.79956213        3.80777001
29       17.58733636       18.65418720        2.53851334
29       20.51855909       22.79956213        2.53851334
29       19.05294772       20.72687467        2.53851334
29       19.78575340       18.65418720        3.80777001
29       21.25136477       20.72687467        3.80777001
29       18.32014204       22.79956213        3.80777001
29       21.98417045       18.65418720        2.53851334
29       24.91539318       22.79956213        2.53851334
29       23.44978181       20.72687467        2.53851334
29       24.18258749       18.65418720        3.80777001
29       25.64819886       20.72687467        3.80777001
29       22.71697613       22.79956213        3.80777001
29       26.38100454       18.65418720        2.53851334
29       29.31222727       22.79956213        2.53851334
29       27.84661590       20.72687467        2.53851334
29       28.57942158       18.65418720        3.80777001
29       30.04503295       20.72687467        3.80777001
29       27.11381022       22.79956213        3.80777001
29       30.77783863       18.65418720        2.53851334
29       33.70906136       22.79956213        2.53851334
29       32.24344999       20.72687467        2.53851334
29       32.97625567       18.65418720        3.80777001
29       34.44186704       20.72687467        3.80777001
29       31.51064431       22.79956213        3.80777001
29        0.00000000       24.87224960        2.53851334
29        2.93122273       29.01762453        2.53851334
29        1.46561136       26.94493707        2.53851334
29        2.19841704       24.87224960        3.80777001
29        3.66402841       26.94493707        3.80777001
29        0.73280568       29.01762453        3.80777001
29        4.39683409       24.87224960        2.53851334
29        7.32805682       29.01762453        2.53851334
29        5.86244545       26.94493707        2.53851334
29        6.59525113       24.87224960        3.80777001
29        8.06086250       26.94493707        3.80777001
29        5.12963977       29.01762453        3.80777001
29        8.79366818       24.87224960        2.53851334
29       11.72489091       29.01762453        2.53851334
29       10.25927954       26.94493707        2.53851334
29       10.99208522       24.87224960        3.80777001
29       12.45769659       26.94493707        3.80777001
29        9.52647386       29.01762453        3.80777001
29       13.19050227       24.87224960        2.53851334
29       16.12172500       29.01762453        2.53851334
29       14.65611363       26.94493707        2.53851334
29       15.38891931       24.87224960        3.80777001
29       16.85453068       26.94493707        3.80777001
29       13.92330795       29.01762453        3.80777001
29       17.58733636       24.87224960        2.53851334
29       20.51855909       29.01762453        2.53851334
29       19.05294772       26.94493707        2.53851334
29       19.78575340       24.87224960        3.80777001
29       21.25136477       26.94493707        3.80777001
29       18.32014204       29.01762453        3.80777001
29       21.98417045       24.87224960        2.53851334
29       24.91539318       29.01762453        2.53851334
29       23.44978181       26.94493707        2.53851334
29       24.18258749       24.87224960        3.80777001
29       25.64819886       26.94493707        3.80777001
29       22.71697613       29.01762453        3.80777001
29       26.38100454       24.87224960        2.53851334
29       29.31222727       29.01762453        2.53851334
29       27.84661590       26.94493707        2.53851334
29       28.57942158       24.87224960        3.80777001
29       30.04503295       26.94493707        3.80777001
29       27.11381022       29.01762453        3.80777001
29       30.77783863       24.87224960        2.53851334
29       33.70906136       29.01762453        2.53851334
29       32.24344999       26.94493707        2.53851334
29       32.97625567       24.87224960        3.80777001
29       34.44186704       26.94493707        3.80777001
29       31.51064431       29.01762453        3.80777001
29        0.00000000        0.00000000        5.07702668
29        2.93122273        4.14537493        5.07702668
29        1.46561136        2.07268747        5.07702668
29        2.19841704        0.00000000        6.34628335
29        3.66402841        2.07268747        6.34628335
29        0.73280568        4.14537493        6.34628335
29        4.39683409        0.00000000        5.07702668
29        7.32805682        4.14537493        5.07702668
29        5.86244545        2.07268747        5.07702668
29        6.59525113        0.00000000        6.34628335
29        8.06086250        2.07268747        6.34628335
29        5.12963977        4.14537493        6.34628335
29        8.79366818        0.00000000        5.07702668
29       11.72489091        4.14537493        5.07702668
29       10.25927954        2.07268747        5.07702668
29       10.99208522        0.00000000        6.34628335
29       12.45769659        2.07268747        6.34628335
29        9.52647386        4.14537493        6.34628335
29       13.19050227        0.00000000        5.07702668
29       16.12172500        4.14537493        5.07702668
29       14.65611363        2.07268747        5.07702668
29       15.38891931        0.00000000        6.34628335
29       16.85453068        2.07268747        6.34628335
29       13.92330795        4.14537493        6.34628335
29       17.58733636        0.00000000        5.07702668
29       20.51855909        4.14537493        5.07702668
29       19.05294772        2.07268747        5.07702668
29       19.78575340        0.00000000        6.34628335
29       21.25136477        2.07268747        6.34628335
29       18.32014204        4.14537493        6.34628335
29       21.98417045        0.00000000        5.07702668
29       24.91539318        4.14537493        5.07702668
29       23.44978181        2.07268747        5.07702668
29       24.18258749        0.00000000        6.34628335
29       25.64819886        2.07268747        6.34628335
29       22.71697613        4.14537493        6.34628335
29       26.38100454        0.00000000        5.07702668
29       29.31222727        4.14537493        5.07702668
29       27.84661590        2.07268747        5.07702668